HEADER
"PSFversion" "1.00"
"design" "(\"TransitionSimu_RCDelayModel2013\" \"Test_20230409\" \"schematic\" \"\")"
"simulator" "spectre"
"temperature" "27"
"host" ""
"date" "Apr  9 15:18:30 2023"
"title" ""
"analysisList" "()"
END
