HEADER
"PSFversion" "1.00"
"V222n V221n V218n V217n V214n V213n V210n V209n V206n V205n V202n V201n V198n V197n V194n V193n V190n V189n V187n V185n V183n V181n V179n V177n V175n V173n V171n V169n V167n V165n V163n V161n V159n V157n V155n V153n V151n V149n V147n V145n V143n V141n V139n V137n V135n V133n V131n V129n V127n V125n V123n V121n V119n V117n V115n V113n V111n V109n V107n V105n V103n V101n V99n V97n V95n V233n V232n V231n V230n V229n V228n V227n V226n V225n V79n V77n V91n V75n V89n V87n V73n V85n V71n V83n V69n V81n V67n V53n V51n V47n V45n V27n V22n V20n V14n V49n V26n V23n V21n V15n V13n V65n V63n V61n V59n V57n V55n V93n" "analogLib_vpulse_spectre"
"I770n I769n I756n I755n I674n I673n I660n I659n I648n I641n I600n I593n I586n I579n I538n I531n I524n I517n I476n I469n I462n I455n I414n I407n I400n I393n I352n I345n I338n I331n I290n I907n I903n I880n I876n I269n I283n I276n I90n I45n I166n I159n I86n I41n I228n I221n I214n I207n" "MISModel_DiagonalXtalk"
"C263n C262n C261n C260n C259n C258n C257n C256n C255n C254n C253n C252n C251n C250n C249n C248n C247n C246n C245n C244n C243n C242n C241n C240n C239n C238n C237n C236n C235n C234n C233n C232n C231n C230n C229n C228n C227n C226n C225n C224n C223n C222n C221n C220n C219n C218n C217n C216n C215n C214n C213n C212n C211n C210n C209n C208n C207n C206n C205n C204n C203n C202n C201n C200n C199n C198n C197n C196n C195n C194n C193n C192n C191n C190n C189n C188n C187n C186n C185n C184n C183n C182n C181n C180n C179n C178n C177n C176n C175n C174n C173n C172n C171n C170n C169n C168n C167n C166n C165n C164n C163n C162n C161n C160n C159n C158n C157n C156n C155n C154n C153n C152n C151n C150n C149n C148n C147n C146n C145n C144n C143n C142n C141n C140n C139n C138n C137n C136n C135n C134n C133n C132n C131n C130n C129n C128n C127n C126n C125n C124n C123n C122n C121n C120n C119n C118n C117n C116n C115n C114n C113n C112n C111n C110n C109n C108n C107n C106n C105n C104n C103n C546n C545n C544n C543n C542n C541n C540n C97n C538n C537n C536n C534n C533n C532n C531n C529n C528n C527n C525n C524n C523n C522n C521n C102n C101n C100n C85n C84n C99n C83n C98n C82n C81n C96n C80n C79n C78n C95n C94n C77n C93n C92n C76n C75n C91n C74n C90n C89n C88n C73n C72n C71n C70n C87n C86n C52n C48n C46n C45n C44n C19n C18n C15n C14n C12n C9n C7n C4n C0n C53n C50n C51n C49n C47n C21n C20n C17n C16n C13n C11n C10n C8n C6n C5n C3n C2n C1n C68n C67n C66n C65n C64n C63n C62n C61n C60n C59n C58n C57n C56n C55n C54n C69n" "analogLib_cap_spectre"
"I772n I771n I758n I757n I744n I743n I730n I729n I716n I715n I708n I707n I690n I689n I676n I675n I662n I661n I649n I642n I635n I628n I621n I617n I608n I601n I594n I587n I580n I573n I566n I559n I555n I546n I539n I532n I525n I518n I511n I504n I497n I493n I484n I477n I470n I463n I456n I449n I442n I435n I431n I422n I415n I408n I401n I394n I387n I380n I373n I369n I360n I353n I346n I339n I332n I325n I908n I904n I900n I896n I892n I890n I885n I881n I877n I318n I270n I311n I307n I263n I256n I298n I249n I245n I291n I284n I236n I277n I174n I167n I91n I50n I46n I160n I87n I77n I73n I69n I67n I42n I229n I222n I215n I208n I201n I194n I187n I183n" "MISModel_Aggressor"
"I742n I741n I728n I727n I706n I705n I688n I687n I634n I627n I616n I607n I572n I565n I554n I545n I510n I503n I492n I483n I448n I441n I430n I421n I386n I379n I368n I359n I324n I244n I899n I895n I889n I884n I317n I262n I306n I255n I297n I235n I66n I182n I173n I76n I72n I49n I200n I193n" "MISModel_AdjacentXtalk"
"I768n I767n I754n I753n I740n I739n I724n I723n I712n I711n I700n I699n I686n I685n I672n I671n I658n I657n I647n I640n I633n I625n I619n I613n I606n I599n I592n I585n I578n I571n I563n I557n I551n I544n I537n I530n I523n I516n I509n I501n I495n I489n I482n I475n I468n I461n I454n I447n I439n I433n I427n I420n I413n I406n I399n I392n I385n I377n I371n I365n I358n I351n I344n I337n I330n I323n I27n I22n I21n I0n I16n I28n I13n I10n I7n I315n I268n I309n I261n I303n I253n I296n I247n I289n I241n I282n I234n I275n I172n I158n I78n I54n I179n I165n I79n I60n I55n I51n I37n I34n I31n I227n I220n I213n I206n I199n I191n I185n" "inv"
"V224n V223n V220n V219n V216n V215n V212n V211n V208n V207n V204n V203n V200n V199n V196n V195n V192n V191n V188n V186n V184n V182n V180n V178n V176n V174n V172n V170n V168n V166n V164n V162n V160n V158n V156n V154n V152n V150n V148n V146n V144n V142n V140n V138n V136n V134n V132n V130n V128n V126n V124n V122n V120n V118n V116n V114n V112n V110n V108n V106n V104n V102n V100n V98n V96n V9n V8n V7n V6n V4n V3n V2n V94n V18n V58n V5n V84n V0n V80n V92n V78n V90n V76n V88n V74n V86n V72n V70n V82n V68n V50n V46n V25n V24n V17n V12n V11n V10n V52n V48n V19n V16n V54n V66n V64n V62n V60n V56n" "analogLib_vdc_spectre"
