HEADER
"PSFversion" "1.00"
"design" "(\"TransitionSimu_MISModel\" \"MISModel_TransitionSimu_230410_B\" \"schematic\" \"\")"
"simulator" "spectre"
"temperature" "27"
"host" ""
"date" "Apr 10 20:36:01 2023"
"title" ""
"analysisList" "()"
END
