HEADER
"PSFversion" "1.00"
"Time Stamp" "Apr  8 21:04:36 2023"
TYPE
"variable" STRUCT(
"value" FLOAT DOUBLE
) PROP( "key" "element" )
VALUE
"temp" "variable" ( 27 ) PROP( )
END
