HEADER
"PSFversion" "1.00"
"C0n" "analogLib_cap_spectre"
"R0n" "analogLib_res_spectre"
"port_av" ":1v"
"port_bv" ":2v"
