HEADER
"PSFversion" "1.00"
"V170n V169n V168n V167n V166n V165n V164n V163n V162n V161n V160n V159n V158n V157n V156n V155n V154n V153n V152n V151n V150n V149n V148n V147n V146n V145n V144n V143n V142n V141n V140n V139n V138n V137n V136n V135n V134n V133n V132n V131n V130n V129n V128n V127n V126n V125n V124n V123n V122n V121n V120n V119n V118n V117n V116n V115n V114n V113n V112n V111n V110n V109n V108n V97n V96n V95n V94n V93n V92n V91n V90n V89n V84n V83n V82n V81n V80n V79n V78n V77n V76n V75n V74n V73n V72n V71n V70n V69n V68n V67n V53n V52n V51n V50n V49n V48n V47n V46n V45n V44n V43n V42n V41n V40n V39n V38n V37n V36n V35n V34n V33n V32n V31n V30n V29n V28n V27n V26n V25n V24n V23n V22n V21n V20n V19n V18n V16n V15n V14n V13n V12n V11n V10n V9n V8n V7n V6n V5n V4n V3n V1n V0n V2n V17n" "analogLib_vpulse_spectre"
"R170n R169n R168n R167n R166n R165n R164n R163n R162n R161n R160n R159n R158n R157n R156n R155n R154n R153n R152n R151n R150n R149n R148n R147n R146n R145n R144n R143n R142n R141n R140n R139n R138n R137n R136n R135n R134n R133n R132n R131n R130n R129n R128n R127n R126n R125n R124n R123n R122n R121n R120n R119n R118n R117n R116n R115n R114n R113n R112n R111n R110n R109n R108n R97n R96n R95n R94n R93n R92n R91n R90n R89n R84n R83n R82n R81n R80n R79n R78n R77n R76n R75n R74n R73n R72n R71n R70n R69n R68n R67n R53n R52n R51n R50n R49n R48n R47n R46n R45n R44n R43n R42n R41n R40n R39n R38n R37n R36n R35n R34n R33n R32n R31n R30n R29n R28n R27n R26n R25n R24n R23n R22n R21n R20n R19n R18n R17n R16n R15n R14n R13n R12n R11n R10n R9n R8n R7n R6n R5n R4n R3n R2n R0n R1n" "analogLib_res_spectre"
"I656n I651n I645n I641n I620n I616n I610n I605n I593n I592n I591n I590n I555n I552n I547n I544n I520n I517n I512n I509n I485n I482n I477n I474n I466n I463n I458n I455n I377n I374n I369n I366n I326n I323n I318n I315n I307n I304n I299n I296n I205n I202n I197n I194n I186n I183n I178n I175n I135n I132n I127n I124n I116n I113n I108n I105n I61n I58n I53n I50n I12n I7n I2n I72n" "MISModel_AdjacentXtalk"
"C399n C398n C397n C396n C395n C394n C393n C392n C391n C390n C389n C388n C387n C386n C385n C384n C383n C382n C381n C380n C379n C378n C377n C376n C375n C374n C373n C372n C371n C370n C369n C368n C367n C366n C365n C364n C363n C362n C361n C360n C359n C358n C357n C356n C355n C354n C353n C352n C351n C350n C349n C348n C347n C346n C345n C344n C343n C342n C341n C340n C339n C338n C337n C336n C335n C334n C333n C332n C331n C330n C329n C328n C327n C326n C325n C324n C323n C322n C321n C320n C319n C318n C317n C316n C315n C314n C313n C312n C311n C310n C309n C308n C307n C306n C305n C304n C303n C302n C301n C300n C299n C298n C297n C296n C295n C294n C293n C292n C291n C290n C289n C288n C287n C286n C285n C284n C283n C282n C281n C280n C279n C278n C277n C276n C275n C274n C273n C272n C271n C270n C269n C268n C267n C266n C265n C264n C263n C262n C261n C260n C259n C258n C257n C256n C255n C254n C253n C226n C225n C224n C223n C222n C221n C220n C219n C218n C217n C216n C215n C214n C213n C212n C211n C210n C209n C208n C207n C206n C197n C196n C195n C194n C193n C192n C191n C190n C189n C188n C187n C186n C185n C184n C183n C182n C181n C180n C179n C178n C177n C176n C175n C174n C173n C172n C171n C170n C169n C168n C167n C166n C165n C164n C163n C162n C161n C160n C159n C158n C157n C156n C126n C125n C124n C123n C122n C121n C120n C119n C118n C117n C116n C115n C114n C113n C112n C111n C110n C109n C108n C107n C106n C105n C104n C103n C102n C101n C100n C99n C98n C97n C96n C95n C94n C93n C92n C91n C90n C89n C88n C87n C86n C85n C84n C83n C82n C81n C80n C79n C78n C77n C76n C75n C74n C73n C72n C71n C70n C69n C68n C67n C66n C65n C64n C63n C62n C61n C60n C59n C58n C57n C56n C55n C54n C53n C52n C51n C50n C49n C48n C47n C46n C45n C44n C43n C42n C41n C40n C39n C38n C37n C36n C35n C34n C33n C32n C31n C30n C29n C28n C27n C26n C25n C24n C23n C22n C21n C20n C19n C18n C17n C16n C15n C14n C12n C11n C10n C6n C5n C4n C3n C2n C1n C0n C7n C9n C8n" "analogLib_cap_spectre"
"I663n I659n I655n I650n I648n I644n I640n I636n I632n I629n I625n I621n I617n I613n I611n I606n I602n I598n I586n I583n I580n I577n I574n I572n I568n I565n I562n I559n I556n I551n I548n I543n I540n I536n I532n I528n I524n I521n I516n I513n I508n I505n I501n I497n I493n I489n I486n I481n I478n I473n I470n I467n I462n I459n I454n I451n I447n I443n I439n I435n I431n I427n I423n I381n I378n I373n I370n I365n I362n I358n I354n I350n I330n I327n I322n I319n I314n I311n I308n I303n I300n I295n I292n I288n I284n I280n I276n I272n I268n I264n I209n I206n I201n I198n I193n I190n I187n I182n I179n I174n I171n I167n I163n I159n I155n I151n I147n I143n I139n I136n I131n I128n I123n I120n I117n I112n I109n I104n I101n I97n I93n I89n I85n I81n I77n I73n I65n I62n I57n I54n I49n I46n I42n I38n I34n I30n I26n I22n I17n I13n I6n I3n I0n I71n" "MISModel_Aggressor"
"I664n I660n I637n I633n I628n I624n I601n I597n I595n I594n I589n I588n I539n I535n I531n I527n I504n I500n I496n I492n I450n I446n I442n I438n I434n I430n I426n I422n I361n I357n I353n I349n I291n I287n I283n I279n I275n I271n I267n I263n I170n I166n I162n I158n I154n I150n I146n I142n I100n I96n I92n I88n I84n I80n I76n I68n I45n I41n I37n I33n I29n I25n I21n I19n" "MISModel_DiagonalXtalk"
