HEADER
"PSFversion" "1.00"
"__NEXT_FILE__" "MISModel_TransitionSimu_230410"
