HEADER
"PSFversion" "1.00"
"PM1n" "tsmcN65_pch_spectre"
"NM1n" "tsmcN65_nch_spectre"
"Gv" ":1v"
"Gbv" ":2v"
"INv" ":3v"
"OUTv" ":4v"
"Pv" ":5v"
"Pbv" ":6v"
