HEADER
"PSFversion" "1.00"
"V233n V232n V231n V230n V229n V228n V227n V226n V225n V224n V223n V222n V221n V220n V219n V218n V217n V216n V215n V214n V213n V212n V211n V210n V209n V208n V207n V206n V205n V204n V203n V202n V201n V200n V199n V198n V197n V196n V195n V194n V193n V192n V191n V190n V189n V188n V187n V186n V185n V184n V183n V182n V181n V180n V179n V178n V177n V176n V175n V174n V173n V172n V171n V170n V169n V168n V167n V166n V165n V164n V163n V162n V161n V160n V159n V158n V157n V156n V155n V154n V153n V152n V151n V150n V149n V148n V147n V146n V145n V144n V143n V142n V141n V140n V139n V138n V137n V136n V135n V134n V133n V132n V131n V130n V129n V128n V127n V126n V125n V124n V123n V122n V121n V120n V119n V118n V117n V116n V115n V114n V113n V112n V111n V110n V109n V108n V17n V16n V15n V14n V13n V12n V11n V10n V9n V8n V7n V6n V5n V4n V3n V2n V1n V0n V38n V37n V50n V51n V53n V49n V52n V36n V39n V42n V41n V45n V46n V48n V44n V47n V40n V43n" "analogLib_vpulse_spectre"
"R233n R232n R231n R230n R229n R228n R227n R226n R225n R224n R223n R222n R221n R220n R219n R218n R217n R216n R215n R214n R213n R212n R211n R210n R209n R208n R207n R206n R205n R204n R203n R202n R201n R200n R199n R198n R197n R196n R195n R194n R193n R192n R191n R190n R189n R188n R187n R186n R185n R184n R183n R182n R181n R180n R179n R178n R177n R176n R175n R174n R173n R172n R171n R170n R169n R168n R167n R166n R165n R164n R163n R162n R161n R160n R159n R158n R157n R156n R155n R154n R153n R152n R151n R150n R149n R148n R147n R146n R145n R144n R143n R142n R141n R140n R139n R138n R137n R136n R135n R134n R133n R132n R131n R130n R129n R128n R127n R126n R125n R124n R123n R122n R121n R120n R119n R118n R117n R116n R115n R114n R113n R112n R111n R110n R109n R108n R17n R16n R15n R14n R13n R12n R11n R10n R9n R8n R7n R6n R5n R4n R3n R2n R1n R0n R38n R37n R49n R50n R53n R51n R52n R36n R39n R42n R41n R44n R45n R48n R46n R47n R40n R43n" "analogLib_res_spectre"
"I908n I904n I900n I896n I892n I890n I885n I881n I877n I874n I873n I866n I865n I858n I857n I850n I849n I842n I841n I838n I837n I828n I827n I820n I819n I812n I811n I806n I802n I798n I794n I790n I788n I783n I779n I775n I771n I767n I763n I759n I755n I753n I748n I744n I740n I736n I732n I728n I724n I720n I718n I713n I709n I705n I699n I695n I691n I687n I683n I681n I676n I672n I668n I664n I660n I655n I652n I648n I646n I641n I637n I633n I629n I625n I621n I617n I613n I611n I606n I602n I598n I594n I590n I585n I582n I578n I576n I571n I567n I563n I559n I555n I551n I547n I543n I541n I536n I532n I528n I524n I520n I515n I512n I508n I506n I501n I497n I493n I489n I485n I481n I477n I473n I471n I466n I462n I458n I454n I450n I445n I442n I438n I436n I431n I427n I423n I68n I64n I60n I56n I52n I50n I45n I41n I37n I33n I29n I25n I21n I17n I15n I10n I6n I2n I151n I147n I193n I198n I209n I201n I206n I143n I155n I167n I163n I174n I179n I190n I182n I187n I159n I171n" "MISModel_Aggressor"
"C551n C550n C549n C548n C547n C546n C545n C544n C543n C542n C541n C540n C539n C538n C537n C536n C535n C534n C533n C532n C531n C530n C529n C528n C527n C526n C525n C524n C523n C522n C521n C520n C519n C518n C517n C516n C515n C514n C513n C512n C511n C510n C509n C508n C507n C506n C505n C504n C503n C502n C501n C500n C499n C498n C497n C496n C495n C494n C493n C492n C491n C490n C489n C488n C487n C486n C485n C484n C483n C482n C481n C480n C479n C478n C477n C476n C475n C474n C473n C472n C471n C470n C469n C468n C467n C466n C465n C464n C463n C462n C461n C460n C459n C458n C457n C456n C455n C454n C453n C452n C451n C450n C449n C448n C447n C446n C445n C444n C443n C442n C441n C440n C439n C438n C437n C436n C435n C434n C433n C432n C431n C430n C429n C428n C427n C426n C425n C424n C423n C422n C421n C420n C419n C418n C417n C416n C415n C414n C413n C412n C411n C410n C409n C408n C407n C406n C405n C404n C403n C402n C401n C400n C399n C398n C397n C396n C395n C394n C393n C392n C391n C390n C389n C388n C387n C386n C385n C384n C383n C382n C381n C380n C379n C378n C377n C376n C375n C374n C373n C372n C371n C370n C369n C368n C367n C366n C365n C364n C363n C362n C361n C360n C359n C358n C357n C356n C355n C354n C353n C352n C351n C350n C349n C348n C347n C346n C345n C344n C343n C342n C341n C340n C339n C338n C337n C336n C335n C334n C333n C332n C331n C330n C329n C328n C327n C326n C325n C324n C323n C322n C321n C320n C319n C318n C317n C316n C315n C314n C313n C312n C311n C310n C309n C308n C307n C306n C305n C304n C303n C302n C301n C300n C299n C298n C297n C296n C295n C294n C293n C292n C291n C290n C289n C288n C287n C286n C285n C284n C283n C282n C281n C280n C279n C278n C277n C276n C275n C274n C273n C272n C271n C270n C269n C268n C267n C266n C265n C264n C263n C262n C261n C260n C259n C258n C257n C256n C255n C254n C253n C252n C41n C40n C39n C38n C37n C36n C35n C34n C33n C32n C31n C30n C29n C28n C27n C26n C25n C24n C23n C22n C21n C20n C19n C18n C17n C16n C15n C14n C13n C12n C11n C10n C9n C8n C7n C6n C5n C4n C3n C2n C1n C0n C89n C87n C116n C114n C118n C117n C121n C122n C124n C123n C85n C91n C97n C95n C103n C101n C105n C104n C108n C109n C111n C110n C93n C99n C90n C88n C115n C119n C126n C120n C125n C86n C92n C98n C96n C102n C106n C113n C107n C112n C94n C100n" "analogLib_cap_spectre"
"I907n I903n I880n I876n I872n I871n I864n I863n I818n I817n I810n I809n I805n I801n I778n I774n I770n I766n I743n I739n I735n I731n I708n I704n I698n I694n I671n I667n I663n I659n I636n I632n I628n I624n I601n I597n I593n I589n I566n I562n I558n I554n I531n I527n I523n I519n I496n I492n I488n I484n I461n I457n I453n I449n I426n I422n I67n I63n I40n I36n I32n I28n I5n I1n I150n I146n I142n I154n I166n I162n I158n I170n" "MISModel_DiagonalXtalk"
"I899n I895n I889n I884n I856n I855n I848n I847n I836n I834n I826n I825n I797n I793n I787n I782n I762n I758n I752n I747n I727n I723n I717n I712n I690n I686n I680n I675n I656n I651n I645n I640n I620n I616n I610n I605n I586n I581n I575n I570n I550n I546n I540n I535n I516n I511n I505n I500n I480n I476n I470n I465n I446n I441n I435n I430n I59n I55n I49n I44n I24n I20n I14n I9n I194n I197n I202n I205n I175n I178n I183n I186n" "MISModel_AdjacentXtalk"
