HEADER
"PSFversion" "1.00"
"design" "(\"TransitionSimu_MISModel\" \"MISModel_TransitionSimu_230410_C\" \"schematic\" \"\")"
"simulator" "spectre"
"temperature" "27"
"host" ""
"date" "Apr 15 20:36:38 2023"
"title" ""
"analysisList" "()"
END
