HEADER
"PSFversion" "1.00"
"V6n V5n V3n V1n V2n V0n V17n V4n V7n V20n V19n V32n V33n V35n V31n V34n V18n V21n V10n V9n V13n V14n V16n V12n V15n V8n V11n V24n V23n V27n V28n V30n V26n V29n V22n V25n V38n V37n V50n V51n V158n V159n V160n V161n V53n V49n V52n V36n V39n V137n V42n V136n V41n V140n V45n V141n V46n V143n V48n V139n V44n V142n V47n V135n V40n V138n V43n V154n V155n V156n V157n V153n V170n V169n V168n V167n V166n V165n V164n V163n V162n V152n V151n V150n V149n V148n V147n V146n V145n V144n" "analogLib_vpulse_spectre"
"R7n R6n R4n R3n R0n R2n R1n R5n R8n R20n R19n R31n R32n R35n R33n R34n R18n R21n R11n R10n R13n R14n R17n R15n R16n R9n R12n R24n R23n R26n R27n R30n R28n R29n R22n R25n R38n R37n R49n R50n R158n R159n R160n R161n R53n R51n R52n R36n R39n R137n R42n R136n R41n R139n R44n R140n R45n R143n R48n R141n R46n R142n R47n R135n R40n R138n R43n R153n R154n R155n R156n R157n R170n R169n R168n R167n R166n R165n R164n R163n R162n R152n R151n R150n R149n R148n R147n R146n R145n R144n" "analogLib_res_spectre"
"I26n I22n I13n I6n I0n I3n I71n I17n I30n I81n I77n I123n I128n I139n I131n I136n I73n I85n I42n I38n I49n I54n I65n I57n I62n I34n I46n I97n I93n I104n I109n I120n I112n I117n I89n I101n I151n I147n I193n I198n I209n I617n I621n I625n I629n I201n I206n I143n I155n I536n I167n I532n I163n I543n I174n I548n I179n I559n I190n I551n I182n I556n I187n I528n I159n I540n I171n I598n I602n I606n I611n I613n I663n I659n I655n I650n I648n I644n I640n I636n I632n I586n I583n I580n I577n I574n I572n I568n I565n I562n" "MISModel_Aggressor"
"C13n C10n C8n C6n C1n C19n C18n C17n C16n C12n C11n C4n C5n C0n C3n C2n C7n C9n C15n C14n C21n C20n C48n C47n C46n C45n C73n C74n C77n C76n C84n C78n C79n C83n C82n C44n C43n C50n C49n C27n C89n C26n C25n C87n C24n C31n C116n C32n C35n C118n C34n C42n C36n C121n C37n C41n C124n C40n C23n C85n C22n C29n C91n C28n C56n C97n C55n C54n C95n C53n C60n C103n C61n C64n C105n C63n C71n C65n C108n C66n C70n C111n C69n C52n C93n C51n C58n C99n C57n C90n C88n C115n C119n C126n C120n C368n C370n C371n C373n C374n C375n C376n C377n C378n C125n C86n C92n C321n C98n C320n C319n C96n C318n C325n C102n C326n C329n C106n C328n C336n C113n C330n C107n C331n C335n C112n C334n C317n C94n C316n C323n C100n C322n C358n C359n C360n C361n C363n C364n C366n C367n C399n C398n C397n C396n C394n C393n C391n C390n C389n C387n C386n C384n C383n C382n C381n C380n C379n C357n C356n C355n C353n C351n C349n C347n C346n C345n C344n C343n C342n C341n C340n C339n C338n C337n" "analogLib_cap_spectre"
"I25n I21n I19n I29n I80n I76n I68n I84n I150n I41n I146n I37n I142n I33n I154n I45n I166n I96n I162n I92n I158n I88n I170n I100n I624n I628n I535n I531n I527n I539n I597n I601n I664n I660n I637n I633n I595n I594n I589n I588n" "MISModel_DiagonalXtalk"
"I12n I7n I2n I72n I124n I127n I132n I135n I194n I50n I197n I53n I202n I58n I205n I61n I175n I105n I178n I108n I183n I113n I186n I116n I616n I620n I544n I547n I552n I555n I605n I610n I656n I651n I645n I641n I593n I592n I591n I590n" "MISModel_AdjacentXtalk"
