HEADER
"PSFversion" "1.00"
"R2n R1n R0n" "analogLib_res_spectre"
"C1n C0n" "analogLib_cap_spectre"
"V0n" "analogLib_vpulse_spectre"
