HEADER
"PSFversion" "1.00"
"design" "(\"BER_simu\" \"tb_dff\" \"schematic\" \"\")"
"simulator" "spectre"
"temperature" "27"
"host" ""
"date" "Mar 25 14:09:33 2021"
"title" ""
"analysisList" "()"
END
