HEADER
"PSFversion" "1.00"
"simulator" "spectre"
"version" "15.1.0.284.isr1"
"date" "5:17:32 PM, Sun Apr 9, 2023"
"design" "// Generated for: spectre"
"analysis type" "info"
"analysis name" "designParamVals"
"analysis description" "Circuit Information"
"xVecSorted" "unknown"
"tolerance.relative" 0.00100000
TYPE
"top-level" STRUCT(
"temp" FLOAT DOUBLE
"tnom" FLOAT DOUBLE
"time" FLOAT DOUBLE
"factor_mos_rf" FLOAT DOUBLE
"mismatchflag_mos_rf" FLOAT DOUBLE
"sigma_factor_rf" FLOAT DOUBLE
"noiseflagnrf" FLOAT DOUBLE
"noiseflagprf" FLOAT DOUBLE
"noiseflagnrf_mc" FLOAT DOUBLE
"noiseflagprf_mc" FLOAT DOUBLE
"sigma_factor_flicker_rf" FLOAT DOUBLE
"c1fnrf" FLOAT DOUBLE
"c2fnrf" FLOAT DOUBLE
"c3fnrf" FLOAT DOUBLE
"c1fprf" FLOAT DOUBLE
"c2fprf" FLOAT DOUBLE
"c3fprf" FLOAT DOUBLE
"is_d_dnw_nrf" FLOAT DOUBLE
"x_jsw_d_dnw_nrf" FLOAT DOUBLE
"n_d_dnw_nrf" FLOAT DOUBLE
"rs_d_dnw_nrf" FLOAT DOUBLE
"cj_d_dnw_nrf" FLOAT DOUBLE
"cjsw_d_dnw_nrf" FLOAT DOUBLE
"is_d_dnw_prf" FLOAT DOUBLE
"x_jsw_d_dnw_prf" FLOAT DOUBLE
"n_d_dnw_prf" FLOAT DOUBLE
"rs_d_dnw_prf" FLOAT DOUBLE
"cj_d_dnw_prf" FLOAT DOUBLE
"cjsw_d_dnw_prf" FLOAT DOUBLE
"is_d_prf" FLOAT DOUBLE
"x_jsw_d_prf" FLOAT DOUBLE
"n_d_prf" FLOAT DOUBLE
"rs_d_prf" FLOAT DOUBLE
"cj_d_prf" FLOAT DOUBLE
"cjsw_d_prf" FLOAT DOUBLE
"par1nrf" FLOAT DOUBLE
"par2nrf" FLOAT DOUBLE
"par3nrf" FLOAT DOUBLE
"par4nrf" FLOAT DOUBLE
"par5nrf" FLOAT DOUBLE
"par1prf" FLOAT DOUBLE
"par2prf" FLOAT DOUBLE
"par3prf" FLOAT DOUBLE
"par4prf" FLOAT DOUBLE
"par5prf" FLOAT DOUBLE
"toxnrf" FLOAT DOUBLE
"dxlnrf" FLOAT DOUBLE
"dxwnrf" FLOAT DOUBLE
"dvthnrf" FLOAT DOUBLE
"dlvthnrf" FLOAT DOUBLE
"dwvthnrf" FLOAT DOUBLE
"dpvthnrf" FLOAT DOUBLE
"cjnrf" FLOAT DOUBLE
"cjswnrf" FLOAT DOUBLE
"cjswgnrf" FLOAT DOUBLE
"cgonrf" FLOAT DOUBLE
"cglnrf" FLOAT DOUBLE
"ddlcnrf" FLOAT DOUBLE
"cfnrf" FLOAT DOUBLE
"drdswnrf" FLOAT DOUBLE
"ntoxnrf" FLOAT DOUBLE
"du0nrf" FLOAT DOUBLE
"dlu0nrf" FLOAT DOUBLE
"dwu0nrf" FLOAT DOUBLE
"dpu0nrf" FLOAT DOUBLE
"deta0nrf" FLOAT DOUBLE
"dleta0nrf" FLOAT DOUBLE
"dweta0nrf" FLOAT DOUBLE
"dpeta0nrf" FLOAT DOUBLE
"dvsatnrf" FLOAT DOUBLE
"dlvsatnrf" FLOAT DOUBLE
"dwvsatnrf" FLOAT DOUBLE
"dpvsatnrf" FLOAT DOUBLE
"dk2nrf" FLOAT DOUBLE
"dlcitnrf" FLOAT DOUBLE
"dwcitnrf" FLOAT DOUBLE
"dlvoffnrf" FLOAT DOUBLE
"dwvoffnrf" FLOAT DOUBLE
"dpvoffnrf" FLOAT DOUBLE
"dnfactornrf" FLOAT DOUBLE
"dwnfactornrf" FLOAT DOUBLE
"dlnfactornrf" FLOAT DOUBLE
"dpnfactornrf" FLOAT DOUBLE
"dpdiblc2nrf" FLOAT DOUBLE
"dla0nrf" FLOAT DOUBLE
"ss_flagrf" FLOAT DOUBLE
"ff_flagrf" FLOAT DOUBLE
"sf_flagrf" FLOAT DOUBLE
"fs_flagrf" FLOAT DOUBLE
"toxprf" FLOAT DOUBLE
"dxlprf" FLOAT DOUBLE
"dxwprf" FLOAT DOUBLE
"dvthprf" FLOAT DOUBLE
"dlvthprf" FLOAT DOUBLE
"dwvthprf" FLOAT DOUBLE
"dpvthprf" FLOAT DOUBLE
"cjprf" FLOAT DOUBLE
"cjswprf" FLOAT DOUBLE
"cjswgprf" FLOAT DOUBLE
"cgoprf" FLOAT DOUBLE
"cglprf" FLOAT DOUBLE
"ddlcprf" FLOAT DOUBLE
"cfprf" FLOAT DOUBLE
"drdswprf" FLOAT DOUBLE
"ntoxprf" FLOAT DOUBLE
"du0prf" FLOAT DOUBLE
"dlu0prf" FLOAT DOUBLE
"dwu0prf" FLOAT DOUBLE
"dpu0prf" FLOAT DOUBLE
"deta0prf" FLOAT DOUBLE
"dleta0prf" FLOAT DOUBLE
"dweta0prf" FLOAT DOUBLE
"dpeta0prf" FLOAT DOUBLE
"dvsatprf" FLOAT DOUBLE
"dlvsatprf" FLOAT DOUBLE
"dwvsatprf" FLOAT DOUBLE
"dpvsatprf" FLOAT DOUBLE
"dk2prf" FLOAT DOUBLE
"dlcitprf" FLOAT DOUBLE
"dwcitprf" FLOAT DOUBLE
"dpcitprf" FLOAT DOUBLE
"dlvoffprf" FLOAT DOUBLE
"dwvoffprf" FLOAT DOUBLE
"dpvoffprf" FLOAT DOUBLE
"dnfactorprf" FLOAT DOUBLE
"dlnfactorprf" FLOAT DOUBLE
"dwnfactorprf" FLOAT DOUBLE
"dpnfactorprf" FLOAT DOUBLE
"dlk2prf" FLOAT DOUBLE
"dwk2prf" FLOAT DOUBLE
"dpk2prf" FLOAT DOUBLE
"dpdiblc2prf" FLOAT DOUBLE
"dlpclmprf" FLOAT DOUBLE
"dppclmprf" FLOAT DOUBLE
"datprf" FLOAT DOUBLE
"dlatprf" FLOAT DOUBLE
"dwatprf" FLOAT DOUBLE
"dpatprf" FLOAT DOUBLE
"factor_mos_rf_hvt" FLOAT DOUBLE
"mismatchflag_mos_rf_hvt" FLOAT DOUBLE
"sigma_factor_rf_hvt" FLOAT DOUBLE
"noiseflagnrf_hvt" FLOAT DOUBLE
"noiseflagprf_hvt" FLOAT DOUBLE
"noiseflagnrf_hvt_mc" FLOAT DOUBLE
"noiseflagprf_hvt_mc" FLOAT DOUBLE
"sigma_factor_flicker_rf_hvt" FLOAT DOUBLE
"c1fnrf_hvt" FLOAT DOUBLE
"c2fnrf_hvt" FLOAT DOUBLE
"c3fnrf_hvt" FLOAT DOUBLE
"c1fprf_hvt" FLOAT DOUBLE
"c2fprf_hvt" FLOAT DOUBLE
"c3fprf_hvt" FLOAT DOUBLE
"is_d_dnw_nrf_hvt" FLOAT DOUBLE
"x_jsw_d_dnw_nrf_hvt" FLOAT DOUBLE
"n_d_dnw_nrf_hvt" FLOAT DOUBLE
"rs_d_dnw_nrf_hvt" FLOAT DOUBLE
"cj_d_dnw_nrf_hvt" FLOAT DOUBLE
"cjsw_d_dnw_nrf_hvt" FLOAT DOUBLE
"is_d_dnw_prf_hvt" FLOAT DOUBLE
"x_jsw_d_dnw_prf_hvt" FLOAT DOUBLE
"n_d_dnw_prf_hvt" FLOAT DOUBLE
"rs_d_dnw_prf_hvt" FLOAT DOUBLE
"cj_d_dnw_prf_hvt" FLOAT DOUBLE
"cjsw_d_dnw_prf_hvt" FLOAT DOUBLE
"is_d_prf_hvt" FLOAT DOUBLE
"x_jsw_d_prf_hvt" FLOAT DOUBLE
"n_d_prf_hvt" FLOAT DOUBLE
"rs_d_prf_hvt" FLOAT DOUBLE
"cj_d_prf_hvt" FLOAT DOUBLE
"cjsw_d_prf_hvt" FLOAT DOUBLE
"par1nrf_hvt" FLOAT DOUBLE
"par2nrf_hvt" FLOAT DOUBLE
"par3nrf_hvt" FLOAT DOUBLE
"par4nrf_hvt" FLOAT DOUBLE
"par5nrf_hvt" FLOAT DOUBLE
"par1prf_hvt" FLOAT DOUBLE
"par2prf_hvt" FLOAT DOUBLE
"par3prf_hvt" FLOAT DOUBLE
"par4prf_hvt" FLOAT DOUBLE
"par5prf_hvt" FLOAT DOUBLE
"toxnrf_hvt" FLOAT DOUBLE
"dxlnrf_hvt" FLOAT DOUBLE
"dxwnrf_hvt" FLOAT DOUBLE
"dvthnrf_hvt" FLOAT DOUBLE
"dlvthnrf_hvt" FLOAT DOUBLE
"dwvthnrf_hvt" FLOAT DOUBLE
"dpvthnrf_hvt" FLOAT DOUBLE
"cjnrf_hvt" FLOAT DOUBLE
"cjswnrf_hvt" FLOAT DOUBLE
"cjswgnrf_hvt" FLOAT DOUBLE
"cgonrf_hvt" FLOAT DOUBLE
"cglnrf_hvt" FLOAT DOUBLE
"ddlcnrf_hvt" FLOAT DOUBLE
"dcitnrf_hvt" FLOAT DOUBLE
"dlcitnrf_hvt" FLOAT DOUBLE
"dwcitnrf_hvt" FLOAT DOUBLE
"dpcitnrf_hvt" FLOAT DOUBLE
"ntoxnrf_hvt" FLOAT DOUBLE
"dnfactornrf_hvt" FLOAT DOUBLE
"dlnfactornrf_hvt" FLOAT DOUBLE
"dwnfactornrf_hvt" FLOAT DOUBLE
"dpnfactornrf_hvt" FLOAT DOUBLE
"du0nrf_hvt" FLOAT DOUBLE
"dlu0nrf_hvt" FLOAT DOUBLE
"dwu0nrf_hvt" FLOAT DOUBLE
"dpu0nrf_hvt" FLOAT DOUBLE
"dvsatnrf_hvt" FLOAT DOUBLE
"dlvsatnrf_hvt" FLOAT DOUBLE
"dwvsatnrf_hvt" FLOAT DOUBLE
"dpvsatnrf_hvt" FLOAT DOUBLE
"deta0nrf_hvt" FLOAT DOUBLE
"dleta0nrf_hvt" FLOAT DOUBLE
"dweta0nrf_hvt" FLOAT DOUBLE
"dpeta0nrf_hvt" FLOAT DOUBLE
"dk2nrf_hvt" FLOAT DOUBLE
"dlk2nrf_hvt" FLOAT DOUBLE
"dwk2nrf_hvt" FLOAT DOUBLE
"dpk2nrf_hvt" FLOAT DOUBLE
"drdswnrf_hvt" FLOAT DOUBLE
"dpclmnrf_hvt" FLOAT DOUBLE
"dpdiblc2nrf_hvt" FLOAT DOUBLE
"dlpdiblc2nrf_hvt" FLOAT DOUBLE
"da0nrf_hvt" FLOAT DOUBLE
"dla0nrf_hvt" FLOAT DOUBLE
"dwa0nrf_hvt" FLOAT DOUBLE
"dpa0nrf_hvt" FLOAT DOUBLE
"dvoffnrf_hvt" FLOAT DOUBLE
"dlvoffnrf_hvt" FLOAT DOUBLE
"dwvoffnrf_hvt" FLOAT DOUBLE
"dpvoffnrf_hvt" FLOAT DOUBLE
"datnrf_hvt" FLOAT DOUBLE
"cfnrf_hvt" FLOAT DOUBLE
"ss_flagrf_hvt" FLOAT DOUBLE
"ff_flagrf_hvt" FLOAT DOUBLE
"sf_flagrf_hvt" FLOAT DOUBLE
"fs_flagrf_hvt" FLOAT DOUBLE
"toxprf_hvt" FLOAT DOUBLE
"dxlprf_hvt" FLOAT DOUBLE
"dxwprf_hvt" FLOAT DOUBLE
"dvthprf_hvt" FLOAT DOUBLE
"dlvthprf_hvt" FLOAT DOUBLE
"dwvthprf_hvt" FLOAT DOUBLE
"dpvthprf_hvt" FLOAT DOUBLE
"cjprf_hvt" FLOAT DOUBLE
"cjswprf_hvt" FLOAT DOUBLE
"cjswgprf_hvt" FLOAT DOUBLE
"cgoprf_hvt" FLOAT DOUBLE
"cglprf_hvt" FLOAT DOUBLE
"ddlcprf_hvt" FLOAT DOUBLE
"dcitprf_hvt" FLOAT DOUBLE
"dlcitprf_hvt" FLOAT DOUBLE
"dwcitprf_hvt" FLOAT DOUBLE
"dpcitprf_hvt" FLOAT DOUBLE
"ntoxprf_hvt" FLOAT DOUBLE
"dnfactorprf_hvt" FLOAT DOUBLE
"dlnfactorprf_hvt" FLOAT DOUBLE
"dwnfactorprf_hvt" FLOAT DOUBLE
"dpnfactorprf_hvt" FLOAT DOUBLE
"du0prf_hvt" FLOAT DOUBLE
"dlu0prf_hvt" FLOAT DOUBLE
"dwu0prf_hvt" FLOAT DOUBLE
"dpu0prf_hvt" FLOAT DOUBLE
"dvsatprf_hvt" FLOAT DOUBLE
"dlvsatprf_hvt" FLOAT DOUBLE
"dwvsatprf_hvt" FLOAT DOUBLE
"dpvsatprf_hvt" FLOAT DOUBLE
"deta0prf_hvt" FLOAT DOUBLE
"dleta0prf_hvt" FLOAT DOUBLE
"dweta0prf_hvt" FLOAT DOUBLE
"dpeta0prf_hvt" FLOAT DOUBLE
"dk2prf_hvt" FLOAT DOUBLE
"dlk2prf_hvt" FLOAT DOUBLE
"dwk2prf_hvt" FLOAT DOUBLE
"dpk2prf_hvt" FLOAT DOUBLE
"drdswprf_hvt" FLOAT DOUBLE
"dpclmprf_hvt" FLOAT DOUBLE
"dlpclmprf_hvt" FLOAT DOUBLE
"dwpclmprf_hvt" FLOAT DOUBLE
"dppclmprf_hvt" FLOAT DOUBLE
"dpdiblc2prf_hvt" FLOAT DOUBLE
"da0prf_hvt" FLOAT DOUBLE
"dla0prf_hvt" FLOAT DOUBLE
"dwa0prf_hvt" FLOAT DOUBLE
"dpa0prf_hvt" FLOAT DOUBLE
"dvoffprf_hvt" FLOAT DOUBLE
"dlvoffprf_hvt" FLOAT DOUBLE
"dwvoffprf_hvt" FLOAT DOUBLE
"dpvoffprf_hvt" FLOAT DOUBLE
"datprf_hvt" FLOAT DOUBLE
"dubprf_hvt" FLOAT DOUBLE
"dlubprf_hvt" FLOAT DOUBLE
"dwubprf_hvt" FLOAT DOUBLE
"dpubprf_hvt" FLOAT DOUBLE
"cfprf_hvt" FLOAT DOUBLE
"factor_mos_rf_mlvt" FLOAT DOUBLE
"mismatchflag_mos_rf_mlvt" FLOAT DOUBLE
"sigma_factor_rf_mlvt" FLOAT DOUBLE
"noiseflagnrf_mlvt" FLOAT DOUBLE
"noiseflagprf_mlvt" FLOAT DOUBLE
"noiseflagnrf_mlvt_mc" FLOAT DOUBLE
"noiseflagprf_mlvt_mc" FLOAT DOUBLE
"sigma_factor_flicker_rf_mlvt" FLOAT DOUBLE
"c1fnrf_mlvt" FLOAT DOUBLE
"c2fnrf_mlvt" FLOAT DOUBLE
"c3fnrf_mlvt" FLOAT DOUBLE
"c1fprf_mlvt" FLOAT DOUBLE
"c2fprf_mlvt" FLOAT DOUBLE
"c3fprf_mlvt" FLOAT DOUBLE
"is_d_dnw_nrf_mlvt" FLOAT DOUBLE
"x_jsw_d_dnw_nrf_mlvt" FLOAT DOUBLE
"n_d_dnw_nrf_mlvt" FLOAT DOUBLE
"rs_d_dnw_nrf_mlvt" FLOAT DOUBLE
"cj_d_dnw_nrf_mlvt" FLOAT DOUBLE
"cjsw_d_dnw_nrf_mlvt" FLOAT DOUBLE
"is_d_dnw_prf_mlvt" FLOAT DOUBLE
"x_jsw_d_dnw_prf_mlvt" FLOAT DOUBLE
"n_d_dnw_prf_mlvt" FLOAT DOUBLE
"rs_d_dnw_prf_mlvt" FLOAT DOUBLE
"cj_d_dnw_prf_mlvt" FLOAT DOUBLE
"cjsw_d_dnw_prf_mlvt" FLOAT DOUBLE
"is_d_prf_mlvt" FLOAT DOUBLE
"x_jsw_d_prf_mlvt" FLOAT DOUBLE
"n_d_prf_mlvt" FLOAT DOUBLE
"rs_d_prf_mlvt" FLOAT DOUBLE
"cj_d_prf_mlvt" FLOAT DOUBLE
"cjsw_d_prf_mlvt" FLOAT DOUBLE
"par1nrf_mlvt" FLOAT DOUBLE
"par2nrf_mlvt" FLOAT DOUBLE
"par3nrf_mlvt" FLOAT DOUBLE
"par4nrf_mlvt" FLOAT DOUBLE
"par5nrf_mlvt" FLOAT DOUBLE
"par1prf_mlvt" FLOAT DOUBLE
"par2prf_mlvt" FLOAT DOUBLE
"par3prf_mlvt" FLOAT DOUBLE
"par4prf_mlvt" FLOAT DOUBLE
"par5prf_mlvt" FLOAT DOUBLE
"toxnrf_mlvt" FLOAT DOUBLE
"dxlnrf_mlvt" FLOAT DOUBLE
"dxwnrf_mlvt" FLOAT DOUBLE
"dvthnrf_mlvt" FLOAT DOUBLE
"dlvthnrf_mlvt" FLOAT DOUBLE
"dwvthnrf_mlvt" FLOAT DOUBLE
"dpvthnrf_mlvt" FLOAT DOUBLE
"cjnrf_mlvt" FLOAT DOUBLE
"cjswnrf_mlvt" FLOAT DOUBLE
"cjswgnrf_mlvt" FLOAT DOUBLE
"cgonrf_mlvt" FLOAT DOUBLE
"cglnrf_mlvt" FLOAT DOUBLE
"ddlcnrf_mlvt" FLOAT DOUBLE
"cfnrf_mlvt" FLOAT DOUBLE
"drdswnrf_mlvt" FLOAT DOUBLE
"ntoxnrf_mlvt" FLOAT DOUBLE
"du0nrf_mlvt" FLOAT DOUBLE
"dlu0nrf_mlvt" FLOAT DOUBLE
"dwu0nrf_mlvt" FLOAT DOUBLE
"dpu0nrf_mlvt" FLOAT DOUBLE
"deta0nrf_mlvt" FLOAT DOUBLE
"dleta0nrf_mlvt" FLOAT DOUBLE
"dweta0nrf_mlvt" FLOAT DOUBLE
"dpeta0nrf_mlvt" FLOAT DOUBLE
"dvsatnrf_mlvt" FLOAT DOUBLE
"dlvsatnrf_mlvt" FLOAT DOUBLE
"dwvsatnrf_mlvt" FLOAT DOUBLE
"dpvsatnrf_mlvt" FLOAT DOUBLE
"dk2nrf_mlvt" FLOAT DOUBLE
"dlcitnrf_mlvt" FLOAT DOUBLE
"dwcitnrf_mlvt" FLOAT DOUBLE
"dlvoffnrf_mlvt" FLOAT DOUBLE
"dwvoffnrf_mlvt" FLOAT DOUBLE
"dpvoffnrf_mlvt" FLOAT DOUBLE
"dnfactornrf_mlvt" FLOAT DOUBLE
"dwnfactornrf_mlvt" FLOAT DOUBLE
"dlnfactornrf_mlvt" FLOAT DOUBLE
"dpnfactornrf_mlvt" FLOAT DOUBLE
"dpdiblc2nrf_mlvt" FLOAT DOUBLE
"dla0nrf_mlvt" FLOAT DOUBLE
"ss_flagrf_mlvt" FLOAT DOUBLE
"ff_flagrf_mlvt" FLOAT DOUBLE
"sf_flagrf_mlvt" FLOAT DOUBLE
"fs_flagrf_mlvt" FLOAT DOUBLE
"toxprf_mlvt" FLOAT DOUBLE
"dxlprf_mlvt" FLOAT DOUBLE
"dxwprf_mlvt" FLOAT DOUBLE
"dvthprf_mlvt" FLOAT DOUBLE
"dlvthprf_mlvt" FLOAT DOUBLE
"dwvthprf_mlvt" FLOAT DOUBLE
"dpvthprf_mlvt" FLOAT DOUBLE
"cjprf_mlvt" FLOAT DOUBLE
"cjswprf_mlvt" FLOAT DOUBLE
"cjswgprf_mlvt" FLOAT DOUBLE
"cgoprf_mlvt" FLOAT DOUBLE
"cglprf_mlvt" FLOAT DOUBLE
"ddlcprf_mlvt" FLOAT DOUBLE
"cfprf_mlvt" FLOAT DOUBLE
"drdswprf_mlvt" FLOAT DOUBLE
"ntoxprf_mlvt" FLOAT DOUBLE
"du0prf_mlvt" FLOAT DOUBLE
"dlu0prf_mlvt" FLOAT DOUBLE
"dwu0prf_mlvt" FLOAT DOUBLE
"dpu0prf_mlvt" FLOAT DOUBLE
"deta0prf_mlvt" FLOAT DOUBLE
"dleta0prf_mlvt" FLOAT DOUBLE
"dweta0prf_mlvt" FLOAT DOUBLE
"dpeta0prf_mlvt" FLOAT DOUBLE
"dvsatprf_mlvt" FLOAT DOUBLE
"dlvsatprf_mlvt" FLOAT DOUBLE
"dwvsatprf_mlvt" FLOAT DOUBLE
"dpvsatprf_mlvt" FLOAT DOUBLE
"dk2prf_mlvt" FLOAT DOUBLE
"dlcitprf_mlvt" FLOAT DOUBLE
"dwcitprf_mlvt" FLOAT DOUBLE
"dpcitprf_mlvt" FLOAT DOUBLE
"dlvoffprf_mlvt" FLOAT DOUBLE
"dwvoffprf_mlvt" FLOAT DOUBLE
"dpvoffprf_mlvt" FLOAT DOUBLE
"dnfactorprf_mlvt" FLOAT DOUBLE
"dlnfactorprf_mlvt" FLOAT DOUBLE
"dwnfactorprf_mlvt" FLOAT DOUBLE
"dpnfactorprf_mlvt" FLOAT DOUBLE
"dlk2prf_mlvt" FLOAT DOUBLE
"dwk2prf_mlvt" FLOAT DOUBLE
"dpk2prf_mlvt" FLOAT DOUBLE
"dpdiblc2prf_mlvt" FLOAT DOUBLE
"dlpclmprf_mlvt" FLOAT DOUBLE
"dppclmprf_mlvt" FLOAT DOUBLE
"datprf_mlvt" FLOAT DOUBLE
"dlatprf_mlvt" FLOAT DOUBLE
"dwatprf_mlvt" FLOAT DOUBLE
"dpatprf_mlvt" FLOAT DOUBLE
"factor_mos_rf_lvt" FLOAT DOUBLE
"mismatchflag_mos_rf_lvt" FLOAT DOUBLE
"sigma_factor_rf_lvt" FLOAT DOUBLE
"noiseflagnrf_lvt" FLOAT DOUBLE
"noiseflagprf_lvt" FLOAT DOUBLE
"noiseflagnrf_lvt_mc" FLOAT DOUBLE
"noiseflagprf_lvt_mc" FLOAT DOUBLE
"sigma_factor_flicker_rf_lvt" FLOAT DOUBLE
"c1fnrf_lvt" FLOAT DOUBLE
"c2fnrf_lvt" FLOAT DOUBLE
"c3fnrf_lvt" FLOAT DOUBLE
"c1fprf_lvt" FLOAT DOUBLE
"c2fprf_lvt" FLOAT DOUBLE
"c3fprf_lvt" FLOAT DOUBLE
"is_d_dnw_nrf_lvt" FLOAT DOUBLE
"x_jsw_d_dnw_nrf_lvt" FLOAT DOUBLE
"n_d_dnw_nrf_lvt" FLOAT DOUBLE
"rs_d_dnw_nrf_lvt" FLOAT DOUBLE
"cj_d_dnw_nrf_lvt" FLOAT DOUBLE
"cjsw_d_dnw_nrf_lvt" FLOAT DOUBLE
"is_d_dnw_prf_lvt" FLOAT DOUBLE
"x_jsw_d_dnw_prf_lvt" FLOAT DOUBLE
"n_d_dnw_prf_lvt" FLOAT DOUBLE
"rs_d_dnw_prf_lvt" FLOAT DOUBLE
"cj_d_dnw_prf_lvt" FLOAT DOUBLE
"cjsw_d_dnw_prf_lvt" FLOAT DOUBLE
"is_d_prf_lvt" FLOAT DOUBLE
"x_jsw_d_prf_lvt" FLOAT DOUBLE
"n_d_prf_lvt" FLOAT DOUBLE
"rs_d_prf_lvt" FLOAT DOUBLE
"cj_d_prf_lvt" FLOAT DOUBLE
"cjsw_d_prf_lvt" FLOAT DOUBLE
"par1nrf_lvt" FLOAT DOUBLE
"par2nrf_lvt" FLOAT DOUBLE
"par3nrf_lvt" FLOAT DOUBLE
"par4nrf_lvt" FLOAT DOUBLE
"par5nrf_lvt" FLOAT DOUBLE
"par1prf_lvt" FLOAT DOUBLE
"par2prf_lvt" FLOAT DOUBLE
"par3prf_lvt" FLOAT DOUBLE
"par4prf_lvt" FLOAT DOUBLE
"par5prf_lvt" FLOAT DOUBLE
"toxnrf_lvt" FLOAT DOUBLE
"dxlnrf_lvt" FLOAT DOUBLE
"dxwnrf_lvt" FLOAT DOUBLE
"dvthnrf_lvt" FLOAT DOUBLE
"dlvthnrf_lvt" FLOAT DOUBLE
"dwvthnrf_lvt" FLOAT DOUBLE
"dpvthnrf_lvt" FLOAT DOUBLE
"cjnrf_lvt" FLOAT DOUBLE
"cjswnrf_lvt" FLOAT DOUBLE
"cjswgnrf_lvt" FLOAT DOUBLE
"cgonrf_lvt" FLOAT DOUBLE
"cglnrf_lvt" FLOAT DOUBLE
"ddlcnrf_lvt" FLOAT DOUBLE
"cfnrf_lvt" FLOAT DOUBLE
"drdswnrf_lvt" FLOAT DOUBLE
"dcitnrf_lvt" FLOAT DOUBLE
"dlcitnrf_lvt" FLOAT DOUBLE
"dwcitnrf_lvt" FLOAT DOUBLE
"dpcitnrf_lvt" FLOAT DOUBLE
"dvoffnrf_lvt" FLOAT DOUBLE
"dlvoffnrf_lvt" FLOAT DOUBLE
"dwvoffnrf_lvt" FLOAT DOUBLE
"dpvoffnrf_lvt" FLOAT DOUBLE
"ntoxnrf_lvt" FLOAT DOUBLE
"dnfactornrf_lvt" FLOAT DOUBLE
"dwnfactornrf_lvt" FLOAT DOUBLE
"dlnfactornrf_lvt" FLOAT DOUBLE
"dpnfactornrf_lvt" FLOAT DOUBLE
"du0nrf_lvt" FLOAT DOUBLE
"dlu0nrf_lvt" FLOAT DOUBLE
"dwu0nrf_lvt" FLOAT DOUBLE
"dpu0nrf_lvt" FLOAT DOUBLE
"duanrf_lvt" FLOAT DOUBLE
"dluanrf_lvt" FLOAT DOUBLE
"dwuanrf_lvt" FLOAT DOUBLE
"dpuanrf_lvt" FLOAT DOUBLE
"dubnrf_lvt" FLOAT DOUBLE
"dlubnrf_lvt" FLOAT DOUBLE
"dwubnrf_lvt" FLOAT DOUBLE
"dpubnrf_lvt" FLOAT DOUBLE
"dua1nrf_lvt" FLOAT DOUBLE
"dlua1nrf_lvt" FLOAT DOUBLE
"dwua1nrf_lvt" FLOAT DOUBLE
"dpua1nrf_lvt" FLOAT DOUBLE
"dub1nrf_lvt" FLOAT DOUBLE
"dlub1nrf_lvt" FLOAT DOUBLE
"dwub1nrf_lvt" FLOAT DOUBLE
"dpub1nrf_lvt" FLOAT DOUBLE
"dkt1nrf_lvt" FLOAT DOUBLE
"dlkt1nrf_lvt" FLOAT DOUBLE
"dwkt1nrf_lvt" FLOAT DOUBLE
"dpkt1nrf_lvt" FLOAT DOUBLE
"deta0nrf_lvt" FLOAT DOUBLE
"dleta0nrf_lvt" FLOAT DOUBLE
"dpeta0nrf_lvt" FLOAT DOUBLE
"dweta0nrf_lvt" FLOAT DOUBLE
"dcdscdnrf_lvt" FLOAT DOUBLE
"dk2nrf_lvt" FLOAT DOUBLE
"dvsatnrf_lvt" FLOAT DOUBLE
"dlvsatnrf_lvt" FLOAT DOUBLE
"dwvsatnrf_lvt" FLOAT DOUBLE
"dpvsatnrf_lvt" FLOAT DOUBLE
"dlk2nrf_lvt" FLOAT DOUBLE
"dwk2nrf_lvt" FLOAT DOUBLE
"dpk2nrf_lvt" FLOAT DOUBLE
"tt_flagrf_lvt" FLOAT DOUBLE
"ss_flagrf_lvt" FLOAT DOUBLE
"ff_flagrf_lvt" FLOAT DOUBLE
"sf_flagrf_lvt" FLOAT DOUBLE
"fs_flagrf_lvt" FLOAT DOUBLE
"toxprf_lvt" FLOAT DOUBLE
"dxlprf_lvt" FLOAT DOUBLE
"dxwprf_lvt" FLOAT DOUBLE
"dvthprf_lvt" FLOAT DOUBLE
"dlvthprf_lvt" FLOAT DOUBLE
"dwvthprf_lvt" FLOAT DOUBLE
"dpvthprf_lvt" FLOAT DOUBLE
"cjprf_lvt" FLOAT DOUBLE
"cjswprf_lvt" FLOAT DOUBLE
"cjswgprf_lvt" FLOAT DOUBLE
"cgoprf_lvt" FLOAT DOUBLE
"cglprf_lvt" FLOAT DOUBLE
"ddlcprf_lvt" FLOAT DOUBLE
"du0prf_lvt" FLOAT DOUBLE
"dlu0prf_lvt" FLOAT DOUBLE
"dwu0prf_lvt" FLOAT DOUBLE
"dpu0prf_lvt" FLOAT DOUBLE
"duaprf_lvt" FLOAT DOUBLE
"dluaprf_lvt" FLOAT DOUBLE
"dwuaprf_lvt" FLOAT DOUBLE
"dpuaprf_lvt" FLOAT DOUBLE
"dubprf_lvt" FLOAT DOUBLE
"dlubprf_lvt" FLOAT DOUBLE
"dwubprf_lvt" FLOAT DOUBLE
"dpubprf_lvt" FLOAT DOUBLE
"dub1prf_lvt" FLOAT DOUBLE
"dlub1prf_lvt" FLOAT DOUBLE
"dwub1prf_lvt" FLOAT DOUBLE
"dpub1prf_lvt" FLOAT DOUBLE
"dua1prf_lvt" FLOAT DOUBLE
"dlua1prf_lvt" FLOAT DOUBLE
"dwua1prf_lvt" FLOAT DOUBLE
"dpua1prf_lvt" FLOAT DOUBLE
"datprf_lvt" FLOAT DOUBLE
"dlatprf_lvt" FLOAT DOUBLE
"dwatprf_lvt" FLOAT DOUBLE
"dpatprf_lvt" FLOAT DOUBLE
"duteprf_lvt" FLOAT DOUBLE
"dluteprf_lvt" FLOAT DOUBLE
"dwuteprf_lvt" FLOAT DOUBLE
"dputeprf_lvt" FLOAT DOUBLE
"dpclmprf_lvt" FLOAT DOUBLE
"dlpclmprf_lvt" FLOAT DOUBLE
"dwpclmprf_lvt" FLOAT DOUBLE
"dppclmprf_lvt" FLOAT DOUBLE
"deta0prf_lvt" FLOAT DOUBLE
"dleta0prf_lvt" FLOAT DOUBLE
"dweta0prf_lvt" FLOAT DOUBLE
"dpeta0prf_lvt" FLOAT DOUBLE
"ntoxprf_lvt" FLOAT DOUBLE
"dk2prf_lvt" FLOAT DOUBLE
"dlk2prf_lvt" FLOAT DOUBLE
"dwk2prf_lvt" FLOAT DOUBLE
"dpk2prf_lvt" FLOAT DOUBLE
"dcitprf_lvt" FLOAT DOUBLE
"dlcitprf_lvt" FLOAT DOUBLE
"dwcitprf_lvt" FLOAT DOUBLE
"dpcitprf_lvt" FLOAT DOUBLE
"cfprf_lvt" FLOAT DOUBLE
"dvoffprf_lvt" FLOAT DOUBLE
"dlvoffprf_lvt" FLOAT DOUBLE
"dwvoffprf_lvt" FLOAT DOUBLE
"dpvoffprf_lvt" FLOAT DOUBLE
"dnfactorprf_lvt" FLOAT DOUBLE
"dlnfactorprf_lvt" FLOAT DOUBLE
"dwnfactorprf_lvt" FLOAT DOUBLE
"dpnfactorprf_lvt" FLOAT DOUBLE
"da0prf_lvt" FLOAT DOUBLE
"dla0prf_lvt" FLOAT DOUBLE
"dwa0prf_lvt" FLOAT DOUBLE
"dpa0prf_lvt" FLOAT DOUBLE
"dagsprf_lvt" FLOAT DOUBLE
"dlagsprf_lvt" FLOAT DOUBLE
"dwagsprf_lvt" FLOAT DOUBLE
"dpagsprf_lvt" FLOAT DOUBLE
"dvsatprf_lvt" FLOAT DOUBLE
"dlvsatprf_lvt" FLOAT DOUBLE
"dwvsatprf_lvt" FLOAT DOUBLE
"dpvsatprf_lvt" FLOAT DOUBLE
"dpdiblc2prf_lvt" FLOAT DOUBLE
"dlpdiblc2prf_lvt" FLOAT DOUBLE
"dwpdiblc2prf_lvt" FLOAT DOUBLE
"dppdiblc2prf_lvt" FLOAT DOUBLE
"factor_mos_rf_18" FLOAT DOUBLE
"mismatchflag_mos_rf_18" FLOAT DOUBLE
"sigma_factor_rf_18" FLOAT DOUBLE
"noiseflagnrf_18" FLOAT DOUBLE
"noiseflagprf_18" FLOAT DOUBLE
"noiseflagnrf_18_mc" FLOAT DOUBLE
"noiseflagprf_18_mc" FLOAT DOUBLE
"sigma_factor_flicker_rf_18" FLOAT DOUBLE
"c1fnrf_18" FLOAT DOUBLE
"c2fnrf_18" FLOAT DOUBLE
"c3fnrf_18" FLOAT DOUBLE
"c1fprf_18" FLOAT DOUBLE
"c2fprf_18" FLOAT DOUBLE
"c3fprf_18" FLOAT DOUBLE
"is_d_dnw_nrf_18" FLOAT DOUBLE
"x_jsw_d_dnw_nrf_18" FLOAT DOUBLE
"n_d_dnw_nrf_18" FLOAT DOUBLE
"rs_d_dnw_nrf_18" FLOAT DOUBLE
"cj_d_dnw_nrf_18" FLOAT DOUBLE
"cjsw_d_dnw_nrf_18" FLOAT DOUBLE
"is_d_dnw_prf_18" FLOAT DOUBLE
"x_jsw_d_dnw_prf_18" FLOAT DOUBLE
"n_d_dnw_prf_18" FLOAT DOUBLE
"rs_d_dnw_prf_18" FLOAT DOUBLE
"cj_d_dnw_prf_18" FLOAT DOUBLE
"cjsw_d_dnw_prf_18" FLOAT DOUBLE
"is_d_prf_18" FLOAT DOUBLE
"x_jsw_d_prf_18" FLOAT DOUBLE
"n_d_prf_18" FLOAT DOUBLE
"rs_d_prf_18" FLOAT DOUBLE
"cj_d_prf_18" FLOAT DOUBLE
"cjsw_d_prf_18" FLOAT DOUBLE
"par1nrf_18" FLOAT DOUBLE
"par2nrf_18" FLOAT DOUBLE
"par3nrf_18" FLOAT DOUBLE
"par4nrf_18" FLOAT DOUBLE
"par5nrf_18" FLOAT DOUBLE
"par1prf_18" FLOAT DOUBLE
"par2prf_18" FLOAT DOUBLE
"par3prf_18" FLOAT DOUBLE
"par4prf_18" FLOAT DOUBLE
"par5prf_18" FLOAT DOUBLE
"toxnrf_18" FLOAT DOUBLE
"dxlnrf_18" FLOAT DOUBLE
"dxwnrf_18" FLOAT DOUBLE
"cjnrf_18" FLOAT DOUBLE
"cjswnrf_18" FLOAT DOUBLE
"cjswgnrf_18" FLOAT DOUBLE
"cgonrf_18" FLOAT DOUBLE
"cglnrf_18" FLOAT DOUBLE
"dlcnrf_18" FLOAT DOUBLE
"dvthnrf_18" FLOAT DOUBLE
"dlvthnrf_18" FLOAT DOUBLE
"dwvthnrf_18" FLOAT DOUBLE
"dpvthnrf_18" FLOAT DOUBLE
"dcitnrf_18" FLOAT DOUBLE
"dlcitnrf_18" FLOAT DOUBLE
"dwcitnrf_18" FLOAT DOUBLE
"dpcitnrf_18" FLOAT DOUBLE
"du0nrf_18" FLOAT DOUBLE
"dlu0nrf_18" FLOAT DOUBLE
"dwu0nrf_18" FLOAT DOUBLE
"dpu0nrf_18" FLOAT DOUBLE
"da0nrf_18" FLOAT DOUBLE
"dla0nrf_18" FLOAT DOUBLE
"dwa0nrf_18" FLOAT DOUBLE
"dpa0nrf_18" FLOAT DOUBLE
"dagsnrf_18" FLOAT DOUBLE
"dlagsnrf_18" FLOAT DOUBLE
"dwagsnrf_18" FLOAT DOUBLE
"dpagsnrf_18" FLOAT DOUBLE
"dvsatnrf_18" FLOAT DOUBLE
"dlvsatnrf_18" FLOAT DOUBLE
"dwvsatnrf_18" FLOAT DOUBLE
"dpvsatnrf_18" FLOAT DOUBLE
"dpclmnrf_18" FLOAT DOUBLE
"dlpclmnrf_18" FLOAT DOUBLE
"dwpclmnrf_18" FLOAT DOUBLE
"dppclmnrf_18" FLOAT DOUBLE
"deta0nrf_18" FLOAT DOUBLE
"dleta0nrf_18" FLOAT DOUBLE
"dweta0nrf_18" FLOAT DOUBLE
"dpeta0nrf_18" FLOAT DOUBLE
"dk2nrf_18" FLOAT DOUBLE
"dlk2nrf_18" FLOAT DOUBLE
"dwk2nrf_18" FLOAT DOUBLE
"dpk2nrf_18" FLOAT DOUBLE
"cfnrf_18" FLOAT DOUBLE
"toxprf_18" FLOAT DOUBLE
"dxlprf_18" FLOAT DOUBLE
"dxwprf_18" FLOAT DOUBLE
"cjprf_18" FLOAT DOUBLE
"cjswprf_18" FLOAT DOUBLE
"cjswgprf_18" FLOAT DOUBLE
"cgoprf_18" FLOAT DOUBLE
"cglprf_18" FLOAT DOUBLE
"dlcprf_18" FLOAT DOUBLE
"dvthprf_18" FLOAT DOUBLE
"dlvthprf_18" FLOAT DOUBLE
"dwvthprf_18" FLOAT DOUBLE
"dpvthprf_18" FLOAT DOUBLE
"du0prf_18" FLOAT DOUBLE
"dlu0prf_18" FLOAT DOUBLE
"dwu0prf_18" FLOAT DOUBLE
"dpu0prf_18" FLOAT DOUBLE
"dnfactorprf_18" FLOAT DOUBLE
"dlnfactorprf_18" FLOAT DOUBLE
"dwnfactorprf_18" FLOAT DOUBLE
"dpnfactorprf_18" FLOAT DOUBLE
"dvoffprf_18" FLOAT DOUBLE
"dlvoffprf_18" FLOAT DOUBLE
"dwvoffprf_18" FLOAT DOUBLE
"dpvoffprf_18" FLOAT DOUBLE
"dcitprf_18" FLOAT DOUBLE
"dlcitprf_18" FLOAT DOUBLE
"dwcitprf_18" FLOAT DOUBLE
"dpcitprf_18" FLOAT DOUBLE
"dvsatprf_18" FLOAT DOUBLE
"dlvsatprf_18" FLOAT DOUBLE
"dwvsatprf_18" FLOAT DOUBLE
"dpvsatprf_18" FLOAT DOUBLE
"da0prf_18" FLOAT DOUBLE
"dla0prf_18" FLOAT DOUBLE
"dwa0prf_18" FLOAT DOUBLE
"dpa0prf_18" FLOAT DOUBLE
"dagsprf_18" FLOAT DOUBLE
"dlagsprf_18" FLOAT DOUBLE
"dwagsprf_18" FLOAT DOUBLE
"dpagsprf_18" FLOAT DOUBLE
"dpclmprf_18" FLOAT DOUBLE
"dlpclmprf_18" FLOAT DOUBLE
"dwpclmprf_18" FLOAT DOUBLE
"dppclmprf_18" FLOAT DOUBLE
"deta0prf_18" FLOAT DOUBLE
"dleta0prf_18" FLOAT DOUBLE
"dweta0prf_18" FLOAT DOUBLE
"dpeta0prf_18" FLOAT DOUBLE
"dk2prf_18" FLOAT DOUBLE
"dlk2prf_18" FLOAT DOUBLE
"dwk2prf_18" FLOAT DOUBLE
"dpk2prf_18" FLOAT DOUBLE
"cfprf_18" FLOAT DOUBLE
"factor_mos_rf_25ud18" FLOAT DOUBLE
"mismatchflag_mos_rf_25ud18" FLOAT DOUBLE
"sigma_factor_rf_25ud18" FLOAT DOUBLE
"noiseflagnrf_25ud18" FLOAT DOUBLE
"noiseflagprf_25ud18" FLOAT DOUBLE
"noiseflagnrf_25ud18_mc" FLOAT DOUBLE
"noiseflagprf_25ud18_mc" FLOAT DOUBLE
"sigma_factor_flicker_rf_25ud18" FLOAT DOUBLE
"c1fnrf_25ud18" FLOAT DOUBLE
"c2fnrf_25ud18" FLOAT DOUBLE
"c3fnrf_25ud18" FLOAT DOUBLE
"c1fprf_25ud18" FLOAT DOUBLE
"c2fprf_25ud18" FLOAT DOUBLE
"c3fprf_25ud18" FLOAT DOUBLE
"is_d_dnw_nrf_25ud18" FLOAT DOUBLE
"x_jsw_d_dnw_nrf_25ud18" FLOAT DOUBLE
"n_d_dnw_nrf_25ud18" FLOAT DOUBLE
"rs_d_dnw_nrf_25ud18" FLOAT DOUBLE
"cj_d_dnw_nrf_25ud18" FLOAT DOUBLE
"cjsw_d_dnw_nrf_25ud18" FLOAT DOUBLE
"is_d_dnw_prf_25ud18" FLOAT DOUBLE
"x_jsw_d_dnw_prf_25ud18" FLOAT DOUBLE
"n_d_dnw_prf_25ud18" FLOAT DOUBLE
"rs_d_dnw_prf_25ud18" FLOAT DOUBLE
"cj_d_dnw_prf_25ud18" FLOAT DOUBLE
"cjsw_d_dnw_prf_25ud18" FLOAT DOUBLE
"is_d_prf_25ud18" FLOAT DOUBLE
"x_jsw_d_prf_25ud18" FLOAT DOUBLE
"n_d_prf_25ud18" FLOAT DOUBLE
"rs_d_prf_25ud18" FLOAT DOUBLE
"cj_d_prf_25ud18" FLOAT DOUBLE
"cjsw_d_prf_25ud18" FLOAT DOUBLE
"par1nrf_25ud18" FLOAT DOUBLE
"par2nrf_25ud18" FLOAT DOUBLE
"par3nrf_25ud18" FLOAT DOUBLE
"par4nrf_25ud18" FLOAT DOUBLE
"par5nrf_25ud18" FLOAT DOUBLE
"par1prf_25ud18" FLOAT DOUBLE
"par2prf_25ud18" FLOAT DOUBLE
"par3prf_25ud18" FLOAT DOUBLE
"par4prf_25ud18" FLOAT DOUBLE
"par5prf_25ud18" FLOAT DOUBLE
"toxnrf_25ud18" FLOAT DOUBLE
"dxlnrf_25ud18" FLOAT DOUBLE
"dxwnrf_25ud18" FLOAT DOUBLE
"cjnrf_25ud18" FLOAT DOUBLE
"cjswnrf_25ud18" FLOAT DOUBLE
"cjswgnrf_25ud18" FLOAT DOUBLE
"cgonrf_25ud18" FLOAT DOUBLE
"cglnrf_25ud18" FLOAT DOUBLE
"dlcnrf_25ud18" FLOAT DOUBLE
"dvthnrf_25ud18" FLOAT DOUBLE
"dlvthnrf_25ud18" FLOAT DOUBLE
"dwvthnrf_25ud18" FLOAT DOUBLE
"dpvthnrf_25ud18" FLOAT DOUBLE
"dcitnrf_25ud18" FLOAT DOUBLE
"dlcitnrf_25ud18" FLOAT DOUBLE
"dwcitnrf_25ud18" FLOAT DOUBLE
"dpcitnrf_25ud18" FLOAT DOUBLE
"du0nrf_25ud18" FLOAT DOUBLE
"dlu0nrf_25ud18" FLOAT DOUBLE
"dwu0nrf_25ud18" FLOAT DOUBLE
"dpu0nrf_25ud18" FLOAT DOUBLE
"da0nrf_25ud18" FLOAT DOUBLE
"dla0nrf_25ud18" FLOAT DOUBLE
"dwa0nrf_25ud18" FLOAT DOUBLE
"dpa0nrf_25ud18" FLOAT DOUBLE
"dagsnrf_25ud18" FLOAT DOUBLE
"dlagsnrf_25ud18" FLOAT DOUBLE
"dwagsnrf_25ud18" FLOAT DOUBLE
"dpagsnrf_25ud18" FLOAT DOUBLE
"dvsatnrf_25ud18" FLOAT DOUBLE
"dlvsatnrf_25ud18" FLOAT DOUBLE
"dwvsatnrf_25ud18" FLOAT DOUBLE
"dpvsatnrf_25ud18" FLOAT DOUBLE
"dpclmnrf_25ud18" FLOAT DOUBLE
"dlpclmnrf_25ud18" FLOAT DOUBLE
"dwpclmnrf_25ud18" FLOAT DOUBLE
"dppclmnrf_25ud18" FLOAT DOUBLE
"deta0nrf_25ud18" FLOAT DOUBLE
"dleta0nrf_25ud18" FLOAT DOUBLE
"dweta0nrf_25ud18" FLOAT DOUBLE
"dpeta0nrf_25ud18" FLOAT DOUBLE
"dk2nrf_25ud18" FLOAT DOUBLE
"dlk2nrf_25ud18" FLOAT DOUBLE
"dwk2nrf_25ud18" FLOAT DOUBLE
"dpk2nrf_25ud18" FLOAT DOUBLE
"cfnrf_25ud18" FLOAT DOUBLE
"toxprf_25ud18" FLOAT DOUBLE
"dxlprf_25ud18" FLOAT DOUBLE
"dxwprf_25ud18" FLOAT DOUBLE
"cjprf_25ud18" FLOAT DOUBLE
"cjswprf_25ud18" FLOAT DOUBLE
"cjswgprf_25ud18" FLOAT DOUBLE
"cgoprf_25ud18" FLOAT DOUBLE
"cglprf_25ud18" FLOAT DOUBLE
"dlcprf_25ud18" FLOAT DOUBLE
"dvthprf_25ud18" FLOAT DOUBLE
"dlvthprf_25ud18" FLOAT DOUBLE
"dwvthprf_25ud18" FLOAT DOUBLE
"dpvthprf_25ud18" FLOAT DOUBLE
"du0prf_25ud18" FLOAT DOUBLE
"dlu0prf_25ud18" FLOAT DOUBLE
"dwu0prf_25ud18" FLOAT DOUBLE
"dpu0prf_25ud18" FLOAT DOUBLE
"dnfactorprf_25ud18" FLOAT DOUBLE
"dlnfactorprf_25ud18" FLOAT DOUBLE
"dwnfactorprf_25ud18" FLOAT DOUBLE
"dpnfactorprf_25ud18" FLOAT DOUBLE
"dvoffprf_25ud18" FLOAT DOUBLE
"dlvoffprf_25ud18" FLOAT DOUBLE
"dwvoffprf_25ud18" FLOAT DOUBLE
"dpvoffprf_25ud18" FLOAT DOUBLE
"dcitprf_25ud18" FLOAT DOUBLE
"dlcitprf_25ud18" FLOAT DOUBLE
"dwcitprf_25ud18" FLOAT DOUBLE
"dpcitprf_25ud18" FLOAT DOUBLE
"dvsatprf_25ud18" FLOAT DOUBLE
"dlvsatprf_25ud18" FLOAT DOUBLE
"dwvsatprf_25ud18" FLOAT DOUBLE
"dpvsatprf_25ud18" FLOAT DOUBLE
"da0prf_25ud18" FLOAT DOUBLE
"dla0prf_25ud18" FLOAT DOUBLE
"dwa0prf_25ud18" FLOAT DOUBLE
"dpa0prf_25ud18" FLOAT DOUBLE
"dagsprf_25ud18" FLOAT DOUBLE
"dlagsprf_25ud18" FLOAT DOUBLE
"dwagsprf_25ud18" FLOAT DOUBLE
"dpagsprf_25ud18" FLOAT DOUBLE
"dpclmprf_25ud18" FLOAT DOUBLE
"dlpclmprf_25ud18" FLOAT DOUBLE
"dwpclmprf_25ud18" FLOAT DOUBLE
"dppclmprf_25ud18" FLOAT DOUBLE
"deta0prf_25ud18" FLOAT DOUBLE
"dleta0prf_25ud18" FLOAT DOUBLE
"dweta0prf_25ud18" FLOAT DOUBLE
"dpeta0prf_25ud18" FLOAT DOUBLE
"dk2prf_25ud18" FLOAT DOUBLE
"dlk2prf_25ud18" FLOAT DOUBLE
"dwk2prf_25ud18" FLOAT DOUBLE
"dpk2prf_25ud18" FLOAT DOUBLE
"cfprf_25ud18" FLOAT DOUBLE
"factor_mos_rf_25" FLOAT DOUBLE
"mismatchflag_mos_rf_25" FLOAT DOUBLE
"sigma_factor_rf_25" FLOAT DOUBLE
"noiseflagnrf_25" FLOAT DOUBLE
"noiseflagprf_25" FLOAT DOUBLE
"noiseflagnrf_25_mc" FLOAT DOUBLE
"noiseflagprf_25_mc" FLOAT DOUBLE
"sigma_factor_flicker_rf_25" FLOAT DOUBLE
"c1fnrf_25" FLOAT DOUBLE
"c2fnrf_25" FLOAT DOUBLE
"c3fnrf_25" FLOAT DOUBLE
"c1fprf_25" FLOAT DOUBLE
"c2fprf_25" FLOAT DOUBLE
"c3fprf_25" FLOAT DOUBLE
"is_d_dnw_nrf_25" FLOAT DOUBLE
"x_jsw_d_dnw_nrf_25" FLOAT DOUBLE
"n_d_dnw_nrf_25" FLOAT DOUBLE
"rs_d_dnw_nrf_25" FLOAT DOUBLE
"cj_d_dnw_nrf_25" FLOAT DOUBLE
"cjsw_d_dnw_nrf_25" FLOAT DOUBLE
"is_d_dnw_prf_25" FLOAT DOUBLE
"x_jsw_d_dnw_prf_25" FLOAT DOUBLE
"n_d_dnw_prf_25" FLOAT DOUBLE
"rs_d_dnw_prf_25" FLOAT DOUBLE
"cj_d_dnw_prf_25" FLOAT DOUBLE
"cjsw_d_dnw_prf_25" FLOAT DOUBLE
"is_d_prf_25" FLOAT DOUBLE
"x_jsw_d_prf_25" FLOAT DOUBLE
"n_d_prf_25" FLOAT DOUBLE
"rs_d_prf_25" FLOAT DOUBLE
"cj_d_prf_25" FLOAT DOUBLE
"cjsw_d_prf_25" FLOAT DOUBLE
"par1nrf_25" FLOAT DOUBLE
"par2nrf_25" FLOAT DOUBLE
"par3nrf_25" FLOAT DOUBLE
"par4nrf_25" FLOAT DOUBLE
"par5nrf_25" FLOAT DOUBLE
"par1prf_25" FLOAT DOUBLE
"par2prf_25" FLOAT DOUBLE
"par3prf_25" FLOAT DOUBLE
"par4prf_25" FLOAT DOUBLE
"par5prf_25" FLOAT DOUBLE
"toxnrf_25" FLOAT DOUBLE
"dxlnrf_25" FLOAT DOUBLE
"dxwnrf_25" FLOAT DOUBLE
"cjnrf_25" FLOAT DOUBLE
"cjswnrf_25" FLOAT DOUBLE
"cjswgnrf_25" FLOAT DOUBLE
"cgonrf_25" FLOAT DOUBLE
"cglnrf_25" FLOAT DOUBLE
"dlcnrf_25" FLOAT DOUBLE
"dvthnrf_25" FLOAT DOUBLE
"dlvthnrf_25" FLOAT DOUBLE
"dwvthnrf_25" FLOAT DOUBLE
"dpvthnrf_25" FLOAT DOUBLE
"dcitnrf_25" FLOAT DOUBLE
"dlcitnrf_25" FLOAT DOUBLE
"dwcitnrf_25" FLOAT DOUBLE
"dpcitnrf_25" FLOAT DOUBLE
"du0nrf_25" FLOAT DOUBLE
"dlu0nrf_25" FLOAT DOUBLE
"dwu0nrf_25" FLOAT DOUBLE
"dpu0nrf_25" FLOAT DOUBLE
"da0nrf_25" FLOAT DOUBLE
"dla0nrf_25" FLOAT DOUBLE
"dwa0nrf_25" FLOAT DOUBLE
"dpa0nrf_25" FLOAT DOUBLE
"dagsnrf_25" FLOAT DOUBLE
"dlagsnrf_25" FLOAT DOUBLE
"dwagsnrf_25" FLOAT DOUBLE
"dpagsnrf_25" FLOAT DOUBLE
"dvsatnrf_25" FLOAT DOUBLE
"dlvsatnrf_25" FLOAT DOUBLE
"dwvsatnrf_25" FLOAT DOUBLE
"dpvsatnrf_25" FLOAT DOUBLE
"dpclmnrf_25" FLOAT DOUBLE
"dlpclmnrf_25" FLOAT DOUBLE
"dwpclmnrf_25" FLOAT DOUBLE
"dppclmnrf_25" FLOAT DOUBLE
"deta0nrf_25" FLOAT DOUBLE
"dleta0nrf_25" FLOAT DOUBLE
"dweta0nrf_25" FLOAT DOUBLE
"dpeta0nrf_25" FLOAT DOUBLE
"dk2nrf_25" FLOAT DOUBLE
"dlk2nrf_25" FLOAT DOUBLE
"dwk2nrf_25" FLOAT DOUBLE
"dpk2nrf_25" FLOAT DOUBLE
"cfnrf_25" FLOAT DOUBLE
"toxprf_25" FLOAT DOUBLE
"dxlprf_25" FLOAT DOUBLE
"dxwprf_25" FLOAT DOUBLE
"cjprf_25" FLOAT DOUBLE
"cjswprf_25" FLOAT DOUBLE
"cjswgprf_25" FLOAT DOUBLE
"cgoprf_25" FLOAT DOUBLE
"cglprf_25" FLOAT DOUBLE
"dlcprf_25" FLOAT DOUBLE
"dvthprf_25" FLOAT DOUBLE
"dlvthprf_25" FLOAT DOUBLE
"dwvthprf_25" FLOAT DOUBLE
"dpvthprf_25" FLOAT DOUBLE
"du0prf_25" FLOAT DOUBLE
"dlu0prf_25" FLOAT DOUBLE
"dwu0prf_25" FLOAT DOUBLE
"dpu0prf_25" FLOAT DOUBLE
"dnfactorprf_25" FLOAT DOUBLE
"dlnfactorprf_25" FLOAT DOUBLE
"dwnfactorprf_25" FLOAT DOUBLE
"dpnfactorprf_25" FLOAT DOUBLE
"dvoffprf_25" FLOAT DOUBLE
"dlvoffprf_25" FLOAT DOUBLE
"dwvoffprf_25" FLOAT DOUBLE
"dpvoffprf_25" FLOAT DOUBLE
"dcitprf_25" FLOAT DOUBLE
"dlcitprf_25" FLOAT DOUBLE
"dwcitprf_25" FLOAT DOUBLE
"dpcitprf_25" FLOAT DOUBLE
"dvsatprf_25" FLOAT DOUBLE
"dlvsatprf_25" FLOAT DOUBLE
"dwvsatprf_25" FLOAT DOUBLE
"dpvsatprf_25" FLOAT DOUBLE
"da0prf_25" FLOAT DOUBLE
"dla0prf_25" FLOAT DOUBLE
"dwa0prf_25" FLOAT DOUBLE
"dpa0prf_25" FLOAT DOUBLE
"dagsprf_25" FLOAT DOUBLE
"dlagsprf_25" FLOAT DOUBLE
"dwagsprf_25" FLOAT DOUBLE
"dpagsprf_25" FLOAT DOUBLE
"dpclmprf_25" FLOAT DOUBLE
"dlpclmprf_25" FLOAT DOUBLE
"dwpclmprf_25" FLOAT DOUBLE
"dppclmprf_25" FLOAT DOUBLE
"deta0prf_25" FLOAT DOUBLE
"dleta0prf_25" FLOAT DOUBLE
"dweta0prf_25" FLOAT DOUBLE
"dpeta0prf_25" FLOAT DOUBLE
"dk2prf_25" FLOAT DOUBLE
"dlk2prf_25" FLOAT DOUBLE
"dwk2prf_25" FLOAT DOUBLE
"dpk2prf_25" FLOAT DOUBLE
"cfprf_25" FLOAT DOUBLE