HEADER
"PSFversion" "1.00"
"design" "(\"TransitionSimu_MISModel\" \"Test_TSVXtalk_230408\" \"schematic\" \"\")"
"simulator" "spectre"
"temperature" "27"
"host" ""
"date" "Apr  9 17:17:28 2023"
"title" ""
"analysisList" "()"
END
