HEADER
"PSFversion" "1.00"
"M0n" "tsmcN65_pch_spectre"
"M1n" "tsmcN65_nch_spectre"
"Av" ":1v"
"Cv" ":2v"
"CBv" ":3v"
"Gbv" ":4v"
"Pbv" ":5v"
"Yv" ":6v"
