HEADER
"PSFversion" "1.00"
"I0n" "dff"
"V0n" "analogLib_vdc_spectre"
"V2n V1n" "analogLib_vpulse_spectre"
